+ 0.02 0 1 tcp 40 ------- 0 0.0 5.0 0 0
- 0.02 0 1 tcp 40 ------- 0 0.0 5.0 0 0
r 0.03032 0 1 tcp 40 ------- 0 0.0 5.0 0 0
+ 0.03032 1 2 tcp 40 ------- 0 0.0 5.0 0 0
- 0.03032 1 2 tcp 40 ------- 0 0.0 5.0 0 0
r 0.04064 1 2 tcp 40 ------- 0 0.0 5.0 0 0
+ 0.04064 2 3 tcp 40 ------- 0 0.0 5.0 0 0
- 0.04064 2 3 tcp 40 ------- 0 0.0 5.0 0 0
r 0.05096 2 3 tcp 40 ------- 0 0.0 5.0 0 0
+ 0.05096 3 4 tcp 40 ------- 0 0.0 5.0 0 0
- 0.05096 3 4 tcp 40 ------- 0 0.0 5.0 0 0
r 0.06128 3 4 tcp 40 ------- 0 0.0 5.0 0 0
+ 0.06128 4 5 tcp 40 ------- 0 0.0 5.0 0 0
- 0.06128 4 5 tcp 40 ------- 0 0.0 5.0 0 0
r 0.0716 4 5 tcp 40 ------- 0 0.0 5.0 0 0
+ 0.0716 5 4 ack 40 ------- 0 5.0 0.0 0 1
- 0.0716 5 4 ack 40 ------- 0 5.0 0.0 0 1
r 0.08192 5 4 ack 40 ------- 0 5.0 0.0 0 1
+ 0.08192 4 3 ack 40 ------- 0 5.0 0.0 0 1
- 0.08192 4 3 ack 40 ------- 0 5.0 0.0 0 1
r 0.09224 4 3 ack 40 ------- 0 5.0 0.0 0 1
+ 0.09224 3 2 ack 40 ------- 0 5.0 0.0 0 1
- 0.09224 3 2 ack 40 ------- 0 5.0 0.0 0 1
r 0.10256 3 2 ack 40 ------- 0 5.0 0.0 0 1
+ 0.10256 2 1 ack 40 ------- 0 5.0 0.0 0 1
- 0.10256 2 1 ack 40 ------- 0 5.0 0.0 0 1
r 0.11288 2 1 ack 40 ------- 0 5.0 0.0 0 1
+ 0.11288 1 0 ack 40 ------- 0 5.0 0.0 0 1
- 0.11288 1 0 ack 40 ------- 0 5.0 0.0 0 1
r 0.1232 1 0 ack 40 ------- 0 5.0 0.0 0 1
+ 0.1232 0 1 tcp 1040 ------- 0 0.0 5.0 1 2
- 0.1232 0 1 tcp 1040 ------- 0 0.0 5.0 1 2
+ 0.1232 0 1 tcp 1040 ------- 0 0.0 5.0 2 3
- 0.13152 0 1 tcp 1040 ------- 0 0.0 5.0 2 3
r 0.14152 0 1 tcp 1040 ------- 0 0.0 5.0 1 2
+ 0.14152 1 2 tcp 1040 ------- 0 0.0 5.0 1 2
- 0.14152 1 2 tcp 1040 ------- 0 0.0 5.0 1 2
r 0.14984 0 1 tcp 1040 ------- 0 0.0 5.0 2 3
+ 0.14984 1 2 tcp 1040 ------- 0 0.0 5.0 2 3
- 0.14984 1 2 tcp 1040 ------- 0 0.0 5.0 2 3
r 0.15984 1 2 tcp 1040 ------- 0 0.0 5.0 1 2
+ 0.15984 2 3 tcp 1040 ------- 0 0.0 5.0 1 2
- 0.15984 2 3 tcp 1040 ------- 0 0.0 5.0 1 2
r 0.16816 1 2 tcp 1040 ------- 0 0.0 5.0 2 3
+ 0.16816 2 3 tcp 1040 ------- 0 0.0 5.0 2 3
- 0.16816 2 3 tcp 1040 ------- 0 0.0 5.0 2 3
r 0.17816 2 3 tcp 1040 ------- 0 0.0 5.0 1 2
+ 0.17816 3 4 tcp 1040 ------- 0 0.0 5.0 1 2
- 0.17816 3 4 tcp 1040 ------- 0 0.0 5.0 1 2
r 0.18648 2 3 tcp 1040 ------- 0 0.0 5.0 2 3
+ 0.18648 3 4 tcp 1040 ------- 0 0.0 5.0 2 3
- 0.18648 3 4 tcp 1040 ------- 0 0.0 5.0 2 3
r 0.19648 3 4 tcp 1040 ------- 0 0.0 5.0 1 2
+ 0.19648 4 5 tcp 1040 ------- 0 0.0 5.0 1 2
- 0.19648 4 5 tcp 1040 ------- 0 0.0 5.0 1 2
r 0.2048 3 4 tcp 1040 ------- 0 0.0 5.0 2 3
+ 0.2048 4 5 tcp 1040 ------- 0 0.0 5.0 2 3
- 0.2048 4 5 tcp 1040 ------- 0 0.0 5.0 2 3
r 0.2148 4 5 tcp 1040 ------- 0 0.0 5.0 1 2
+ 0.2148 5 4 ack 40 ------- 0 5.0 0.0 1 4
- 0.2148 5 4 ack 40 ------- 0 5.0 0.0 1 4
r 0.22312 4 5 tcp 1040 ------- 0 0.0 5.0 2 3
+ 0.22312 5 4 ack 40 ------- 0 5.0 0.0 2 5
- 0.22312 5 4 ack 40 ------- 0 5.0 0.0 2 5
r 0.22512 5 4 ack 40 ------- 0 5.0 0.0 1 4
+ 0.22512 4 3 ack 40 ------- 0 5.0 0.0 1 4
- 0.22512 4 3 ack 40 ------- 0 5.0 0.0 1 4
r 0.23344 5 4 ack 40 ------- 0 5.0 0.0 2 5
+ 0.23344 4 3 ack 40 ------- 0 5.0 0.0 2 5
- 0.23344 4 3 ack 40 ------- 0 5.0 0.0 2 5
r 0.23544 4 3 ack 40 ------- 0 5.0 0.0 1 4
+ 0.23544 3 2 ack 40 ------- 0 5.0 0.0 1 4
- 0.23544 3 2 ack 40 ------- 0 5.0 0.0 1 4
r 0.24376 4 3 ack 40 ------- 0 5.0 0.0 2 5
+ 0.24376 3 2 ack 40 ------- 0 5.0 0.0 2 5
- 0.24376 3 2 ack 40 ------- 0 5.0 0.0 2 5
r 0.24576 3 2 ack 40 ------- 0 5.0 0.0 1 4
+ 0.24576 2 1 ack 40 ------- 0 5.0 0.0 1 4
- 0.24576 2 1 ack 40 ------- 0 5.0 0.0 1 4
r 0.25408 3 2 ack 40 ------- 0 5.0 0.0 2 5
+ 0.25408 2 1 ack 40 ------- 0 5.0 0.0 2 5
- 0.25408 2 1 ack 40 ------- 0 5.0 0.0 2 5
r 0.25608 2 1 ack 40 ------- 0 5.0 0.0 1 4
+ 0.25608 1 0 ack 40 ------- 0 5.0 0.0 1 4
- 0.25608 1 0 ack 40 ------- 0 5.0 0.0 1 4
r 0.2644 2 1 ack 40 ------- 0 5.0 0.0 2 5
+ 0.2644 1 0 ack 40 ------- 0 5.0 0.0 2 5
- 0.2644 1 0 ack 40 ------- 0 5.0 0.0 2 5
r 0.2664 1 0 ack 40 ------- 0 5.0 0.0 1 4
+ 0.2664 0 1 tcp 1040 ------- 0 0.0 5.0 3 6
- 0.2664 0 1 tcp 1040 ------- 0 0.0 5.0 3 6
+ 0.2664 0 1 tcp 1040 ------- 0 0.0 5.0 4 7
- 0.27472 0 1 tcp 1040 ------- 0 0.0 5.0 4 7
r 0.27472 1 0 ack 40 ------- 0 5.0 0.0 2 5
+ 0.27472 0 1 tcp 1040 ------- 0 0.0 5.0 5 8
+ 0.27472 0 1 tcp 1040 ------- 0 0.0 5.0 6 9
- 0.28304 0 1 tcp 1040 ------- 0 0.0 5.0 5 8
r 0.28472 0 1 tcp 1040 ------- 0 0.0 5.0 3 6
+ 0.28472 1 2 tcp 1040 ------- 0 0.0 5.0 3 6
- 0.28472 1 2 tcp 1040 ------- 0 0.0 5.0 3 6
- 0.29136 0 1 tcp 1040 ------- 0 0.0 5.0 6 9
r 0.29304 0 1 tcp 1040 ------- 0 0.0 5.0 4 7
+ 0.29304 1 2 tcp 1040 ------- 0 0.0 5.0 4 7
- 0.29304 1 2 tcp 1040 ------- 0 0.0 5.0 4 7
r 0.30136 0 1 tcp 1040 ------- 0 0.0 5.0 5 8
+ 0.30136 1 2 tcp 1040 ------- 0 0.0 5.0 5 8
- 0.30136 1 2 tcp 1040 ------- 0 0.0 5.0 5 8
r 0.30304 1 2 tcp 1040 ------- 0 0.0 5.0 3 6
+ 0.30304 2 3 tcp 1040 ------- 0 0.0 5.0 3 6
- 0.30304 2 3 tcp 1040 ------- 0 0.0 5.0 3 6
r 0.30968 0 1 tcp 1040 ------- 0 0.0 5.0 6 9
+ 0.30968 1 2 tcp 1040 ------- 0 0.0 5.0 6 9
- 0.30968 1 2 tcp 1040 ------- 0 0.0 5.0 6 9
r 0.31136 1 2 tcp 1040 ------- 0 0.0 5.0 4 7
+ 0.31136 2 3 tcp 1040 ------- 0 0.0 5.0 4 7
- 0.31136 2 3 tcp 1040 ------- 0 0.0 5.0 4 7
r 0.31968 1 2 tcp 1040 ------- 0 0.0 5.0 5 8
+ 0.31968 2 3 tcp 1040 ------- 0 0.0 5.0 5 8
- 0.31968 2 3 tcp 1040 ------- 0 0.0 5.0 5 8
r 0.32136 2 3 tcp 1040 ------- 0 0.0 5.0 3 6
+ 0.32136 3 4 tcp 1040 ------- 0 0.0 5.0 3 6
- 0.32136 3 4 tcp 1040 ------- 0 0.0 5.0 3 6
r 0.328 1 2 tcp 1040 ------- 0 0.0 5.0 6 9
+ 0.328 2 3 tcp 1040 ------- 0 0.0 5.0 6 9
- 0.328 2 3 tcp 1040 ------- 0 0.0 5.0 6 9
r 0.32968 2 3 tcp 1040 ------- 0 0.0 5.0 4 7
+ 0.32968 3 4 tcp 1040 ------- 0 0.0 5.0 4 7
- 0.32968 3 4 tcp 1040 ------- 0 0.0 5.0 4 7
r 0.338 2 3 tcp 1040 ------- 0 0.0 5.0 5 8
+ 0.338 3 4 tcp 1040 ------- 0 0.0 5.0 5 8
- 0.338 3 4 tcp 1040 ------- 0 0.0 5.0 5 8
r 0.33968 3 4 tcp 1040 ------- 0 0.0 5.0 3 6
+ 0.33968 4 5 tcp 1040 ------- 0 0.0 5.0 3 6
- 0.33968 4 5 tcp 1040 ------- 0 0.0 5.0 3 6
r 0.34632 2 3 tcp 1040 ------- 0 0.0 5.0 6 9
+ 0.34632 3 4 tcp 1040 ------- 0 0.0 5.0 6 9
- 0.34632 3 4 tcp 1040 ------- 0 0.0 5.0 6 9
r 0.348 3 4 tcp 1040 ------- 0 0.0 5.0 4 7
+ 0.348 4 5 tcp 1040 ------- 0 0.0 5.0 4 7
- 0.348 4 5 tcp 1040 ------- 0 0.0 5.0 4 7
r 0.35632 3 4 tcp 1040 ------- 0 0.0 5.0 5 8
+ 0.35632 4 5 tcp 1040 ------- 0 0.0 5.0 5 8
- 0.35632 4 5 tcp 1040 ------- 0 0.0 5.0 5 8
r 0.358 4 5 tcp 1040 ------- 0 0.0 5.0 3 6
+ 0.358 5 4 ack 40 ------- 0 5.0 0.0 3 10
- 0.358 5 4 ack 40 ------- 0 5.0 0.0 3 10
r 0.36464 3 4 tcp 1040 ------- 0 0.0 5.0 6 9
+ 0.36464 4 5 tcp 1040 ------- 0 0.0 5.0 6 9
- 0.36464 4 5 tcp 1040 ------- 0 0.0 5.0 6 9
r 0.36632 4 5 tcp 1040 ------- 0 0.0 5.0 4 7
+ 0.36632 5 4 ack 40 ------- 0 5.0 0.0 4 11
- 0.36632 5 4 ack 40 ------- 0 5.0 0.0 4 11
r 0.36832 5 4 ack 40 ------- 0 5.0 0.0 3 10
+ 0.36832 4 3 ack 40 ------- 0 5.0 0.0 3 10
- 0.36832 4 3 ack 40 ------- 0 5.0 0.0 3 10
r 0.37464 4 5 tcp 1040 ------- 0 0.0 5.0 5 8
+ 0.37464 5 4 ack 40 ------- 0 5.0 0.0 5 12
- 0.37464 5 4 ack 40 ------- 0 5.0 0.0 5 12
r 0.37664 5 4 ack 40 ------- 0 5.0 0.0 4 11
+ 0.37664 4 3 ack 40 ------- 0 5.0 0.0 4 11
- 0.37664 4 3 ack 40 ------- 0 5.0 0.0 4 11
r 0.37864 4 3 ack 40 ------- 0 5.0 0.0 3 10
+ 0.37864 3 2 ack 40 ------- 0 5.0 0.0 3 10
- 0.37864 3 2 ack 40 ------- 0 5.0 0.0 3 10
r 0.38296 4 5 tcp 1040 ------- 0 0.0 5.0 6 9
+ 0.38296 5 4 ack 40 ------- 0 5.0 0.0 6 13
- 0.38296 5 4 ack 40 ------- 0 5.0 0.0 6 13
r 0.38496 5 4 ack 40 ------- 0 5.0 0.0 5 12
+ 0.38496 4 3 ack 40 ------- 0 5.0 0.0 5 12
- 0.38496 4 3 ack 40 ------- 0 5.0 0.0 5 12
r 0.38696 4 3 ack 40 ------- 0 5.0 0.0 4 11
+ 0.38696 3 2 ack 40 ------- 0 5.0 0.0 4 11
- 0.38696 3 2 ack 40 ------- 0 5.0 0.0 4 11
r 0.38896 3 2 ack 40 ------- 0 5.0 0.0 3 10
+ 0.38896 2 1 ack 40 ------- 0 5.0 0.0 3 10
- 0.38896 2 1 ack 40 ------- 0 5.0 0.0 3 10
r 0.39328 5 4 ack 40 ------- 0 5.0 0.0 6 13
+ 0.39328 4 3 ack 40 ------- 0 5.0 0.0 6 13
- 0.39328 4 3 ack 40 ------- 0 5.0 0.0 6 13
r 0.39528 4 3 ack 40 ------- 0 5.0 0.0 5 12
+ 0.39528 3 2 ack 40 ------- 0 5.0 0.0 5 12
- 0.39528 3 2 ack 40 ------- 0 5.0 0.0 5 12
r 0.39728 3 2 ack 40 ------- 0 5.0 0.0 4 11
+ 0.39728 2 1 ack 40 ------- 0 5.0 0.0 4 11
- 0.39728 2 1 ack 40 ------- 0 5.0 0.0 4 11
r 0.39928 2 1 ack 40 ------- 0 5.0 0.0 3 10
+ 0.39928 1 0 ack 40 ------- 0 5.0 0.0 3 10
- 0.39928 1 0 ack 40 ------- 0 5.0 0.0 3 10
d 0.4 3 2 ack 40 ------- 0 5.0 0.0 5 12
v 0.40000000000000002 link-down 3 2
v 0.40000000000000002 link-down 2 3
r 0.4036 4 3 ack 40 ------- 0 5.0 0.0 6 13
r 0.4076 2 1 ack 40 ------- 0 5.0 0.0 4 11
+ 0.4076 1 0 ack 40 ------- 0 5.0 0.0 4 11
- 0.4076 1 0 ack 40 ------- 0 5.0 0.0 4 11
r 0.4096 1 0 ack 40 ------- 0 5.0 0.0 3 10
+ 0.4096 0 1 tcp 1040 ------- 0 0.0 5.0 7 14
- 0.4096 0 1 tcp 1040 ------- 0 0.0 5.0 7 14
+ 0.4096 0 1 tcp 1040 ------- 0 0.0 5.0 8 15
r 0.41792 1 0 ack 40 ------- 0 5.0 0.0 4 11
+ 0.41792 0 1 tcp 1040 ------- 0 0.0 5.0 9 16
+ 0.41792 0 1 tcp 1040 ------- 0 0.0 5.0 10 17
- 0.41792 0 1 tcp 1040 ------- 0 0.0 5.0 8 15
- 0.42624 0 1 tcp 1040 ------- 0 0.0 5.0 9 16
r 0.42792 0 1 tcp 1040 ------- 0 0.0 5.0 7 14
+ 0.42792 1 2 tcp 1040 ------- 0 0.0 5.0 7 14
- 0.42792 1 2 tcp 1040 ------- 0 0.0 5.0 7 14
- 0.43456 0 1 tcp 1040 ------- 0 0.0 5.0 10 17
r 0.43624 0 1 tcp 1040 ------- 0 0.0 5.0 8 15
+ 0.43624 1 2 tcp 1040 ------- 0 0.0 5.0 8 15
- 0.43624 1 2 tcp 1040 ------- 0 0.0 5.0 8 15
r 0.44456 0 1 tcp 1040 ------- 0 0.0 5.0 9 16
+ 0.44456 1 2 tcp 1040 ------- 0 0.0 5.0 9 16
- 0.44456 1 2 tcp 1040 ------- 0 0.0 5.0 9 16
r 0.44624 1 2 tcp 1040 ------- 0 0.0 5.0 7 14
r 0.45288 0 1 tcp 1040 ------- 0 0.0 5.0 10 17
+ 0.45288 1 2 tcp 1040 ------- 0 0.0 5.0 10 17
- 0.45288 1 2 tcp 1040 ------- 0 0.0 5.0 10 17
r 0.45456 1 2 tcp 1040 ------- 0 0.0 5.0 8 15
r 0.46288 1 2 tcp 1040 ------- 0 0.0 5.0 9 16
r 0.4712 1 2 tcp 1040 ------- 0 0.0 5.0 10 17
+ 0.71792 0 1 tcp 1040 ---A--- 0 0.0 5.0 5 18
- 0.71792 0 1 tcp 1040 ---A--- 0 0.0 5.0 5 18
r 0.73624 0 1 tcp 1040 ---A--- 0 0.0 5.0 5 18
+ 0.73624 1 2 tcp 1040 ---A--- 0 0.0 5.0 5 18
- 0.73624 1 2 tcp 1040 ---A--- 0 0.0 5.0 5 18
r 0.75456 1 2 tcp 1040 ---A--- 0 0.0 5.0 5 18
